+V28
6
1609367550
0
"Doing"
1
7
1
1609367563
1
3600
0
1
1609367567
""
""
"localhost"
""
""
0
